# vtk DataFile Version 2.0
untitled, Created by Gmsh 4.13.1 
ASCII
DATASET UNSTRUCTURED_GRID
POINTS 50 double
0 0 0
1 0 0
0.02040816326526762 0 0
0.04081632653053208 0 0
0.06122448979579391 0 0
0.08163265306106675 0 0
0.1020408163263416 0 0
0.1224489795916147 0 0
0.1428571428568666 0 0
0.1632653061221131 0 0
0.1836734693873597 0 0
0.2040816326526062 0 0
0.2244897959178528 0 0
0.2448979591830993 0 0
0.2653061224483459 0 0
0.2857142857135924 0 0
0.3061224489788389 0 0
0.3265306122440855 0 0
0.3469387755093321 0 0
0.3673469387745786 0 0
0.3877551020398252 0 0
0.4081632653050717 0 0
0.4285714285703183 0 0
0.4489795918355649 0 0
0.4693877551008114 0 0
0.489795918366058 0 0
0.5102040816313612 0 0
0.5306122448967212 0 0
0.5510204081620811 0 0
0.5714285714274411 0 0
0.591836734692801 0 0
0.6122448979581608 0 0
0.6326530612235208 0 0
0.6530612244888808 0 0
0.6734693877542408 0 0
0.6938775510196008 0 0
0.7142857142849607 0 0
0.7346938775503207 0 0
0.7551020408156806 0 0
0.7755102040810404 0 0
0.7959183673464004 0 0
0.8163265306117604 0 0
0.8367346938771204 0 0
0.8571428571424804 0 0
0.8775510204078403 0 0
0.8979591836732003 0 0
0.9183673469385601 0 0
0.93877551020392 0 0
0.95918367346928 0 0
0.97959183673464 0 0

CELLS 51 151
1 0
1 1
2 0 2
2 2 3
2 3 4
2 4 5
2 5 6
2 6 7
2 7 8
2 8 9
2 9 10
2 10 11
2 11 12
2 12 13
2 13 14
2 14 15
2 15 16
2 16 17
2 17 18
2 18 19
2 19 20
2 20 21
2 21 22
2 22 23
2 23 24
2 24 25
2 25 26
2 26 27
2 27 28
2 28 29
2 29 30
2 30 31
2 31 32
2 32 33
2 33 34
2 34 35
2 35 36
2 36 37
2 37 38
2 38 39
2 39 40
2 40 41
2 41 42
2 42 43
2 43 44
2 44 45
2 45 46
2 46 47
2 47 48
2 48 49
2 49 1

CELL_TYPES 51
1
1
3
3
3
3
3
3
3
3
3
3
3
3
3
3
3
3
3
3
3
3
3
3
3
3
3
3
3
3
3
3
3
3
3
3
3
3
3
3
3
3
3
3
3
3
3
3
3
3
3

CELL_DATA 51
SCALARS CellEntityIds int 1
LOOKUP_TABLE default
2
3
4
4
4
4
4
4
4
4
4
4
4
4
4
4
4
4
4
4
4
4
4
4
4
4
4
4
4
4
4
4
4
4
4
4
4
4
4
4
4
4
4
4
4
4
4
4
4
4
4
